       3
 i =        4, E =       -37.7615949993
  O        -0.0000046098        0.0000062233        1.1774731532
  C         0.0000084616       -0.0000113587        0.0002267873
  O        -0.0000046136        0.0000062103       -1.1770163989
